192
Lattice="18.549 0.0 0.0 0.0 18.549 0.0 0.0 0.0 18.549" Properties=species:S:1:pos:R:3:momenta:R:3:energies:R:1:forces:R:3 free_energy=-983.465087890625 energy=-983.465087890625 stress="0.0016492459690198302 0.0002845011476892978 0.00022420448658522218 0.0002845011476892978 0.002782657044008374 0.00016372041136492044 0.00022420448658522218 0.00016372041136492044 0.002234430518001318" pbc="T T T"
O        0.78327600       5.06485700       4.12472000       0.21086095      -0.96753367       1.33568339      -8.32557964       0.07919572       0.02313195      -0.16551885
H        0.86196400       5.06741500       5.09152000      -0.25393063      -0.15603627      -0.08431246      -3.53616095       0.21002364       0.10433224      -0.41490167
H        1.55343800       5.50870900       3.73646300      -0.21767652      -0.15220214       0.05038071      -3.51950359      -0.23752558      -0.05580430       0.54108083
O       16.87907600      10.69217600       3.87623400      -0.92336104      -0.64463397      -0.73984137      -8.32666779      -0.19353029       0.03617208      -0.22242448
H       17.81861800      10.93313700       3.86629900      -0.26193254       0.15222129       0.04013243      -3.56136322      -0.22290309      -0.48214093       0.38480163
H       16.76323900       9.86241500       4.36508600      -0.08355307      -0.27267213       0.55184908      -3.53254938       0.50171286       0.45808217      -0.11185541
O        8.10766500       5.66256100       3.09759000       0.43625867      -1.39865974      -0.14909463      -8.39588356       0.01400196       0.00031731      -0.03093412
H        8.56237500       4.80659100       3.05944700      -0.30493523      -0.16161509      -0.13571721      -3.47149277      -0.11669856       0.47991878       0.36008820
H        8.20808200       6.04279500       3.98429000       0.07844433      -0.13367294      -0.00625167      -3.48824644       0.07638462      -0.50230837      -0.08089232
O        5.35637800       1.44708300       9.05222400       0.10986613       0.66871571      -0.18554838      -8.38360596      -0.07520036      -0.00693955       0.10804452
H        6.00799300       1.60188800       9.75389000       0.43415850       0.27340955       0.10079126      -3.50227642      -0.19017150       0.14957871      -0.54770124
H        5.47654200       2.10400100       8.34872100       0.10404843       0.43163492       0.02059725      -3.51339102       0.27587631      -0.12570292       0.47272983
O        0.58413600      11.29966300       7.10589000      -1.16499826       0.04771069      -0.83879724      -8.25458717      -0.30435145       0.16966964       0.34371233
H        1.12651500      12.00958800       6.72809200       0.16210235       0.45488471      -0.16201351      -3.50990582       0.03512985      -0.66950506       0.32820830
H        1.13539000      10.73905000       7.67398400       0.31496880       0.18043147      -0.23037616      -3.53676128       0.10079120       0.50164181      -0.33397514
O        1.48425900       0.57786900      10.46281800       1.51048229      -0.31004500       1.02494185      -8.35692406       0.07116338       0.03627503      -0.07572331
H        0.62574900       0.32318300      10.83564000       0.19807962      -0.01868960       0.28200679      -3.54002476       0.46661270      -0.19813108       0.01315926
H        2.17649500       0.00063200      10.82129300      -0.73556484       0.05147363       0.00006993      -3.51894093      -0.57834059       0.11296433       0.06796433
O       16.62193900      17.15598900      10.24309400      -0.73208372      -0.91438512      -0.66679339      -8.42053318       0.11426873      -0.13603181       0.08637604
H       15.86071800      17.61631900       9.85639000      -0.27806605       0.24955285       0.33943596      -3.50294638       0.42539462      -0.25528380      -0.07149555
H       17.13443200      16.73003800       9.53824300      -0.21801239       0.00483868       0.10904444      -3.48089933      -0.44260284       0.42756414       0.02891938
O        1.78486900      10.47910600       4.66729600      -1.34444099      -0.06719428       0.19043740      -8.41831970      -0.03793313       0.15074897      -0.32452905
H        2.00567100       9.53457800       4.66366900       0.09960797       0.14264454       0.06703732      -3.50183392       0.30892578       0.47249210      -0.01599957
H        2.60172200      11.00214500       4.65844200      -0.31054790      -0.46177089      -0.16786915      -3.47184420      -0.09823529      -0.66076732      -0.09078482
O        6.71527000      15.55696300       0.71159400       2.32407305      -0.49297996       1.04134534      -8.20770454      -0.27520120       0.17123014      -0.20724881
H        6.64702200      16.42992400       1.12894500       0.15392874      -0.37774728       0.13942688      -3.54701805       0.63415849      -0.30154538      -0.39197108
H        7.46690700      15.54956700       0.09850000       0.27428648       0.18635378      -0.07259207      -3.52783394      -0.27389205       0.50461209       0.47965142
O        5.39917200       1.86611000       1.00878600      -0.01221074      -1.10405736      -0.07788283      -8.41120243       0.07579838       0.07175301      -0.06301847
H        5.83085700       1.16044500       0.50224400      -0.19471298      -0.17600893       0.13740793      -3.46908903       0.03358072       0.28426856       0.42033625
H        5.97378400       2.13548100       1.74237900       0.05674181       0.37517766      -0.25535802      -3.47776556      -0.07454803      -0.39038903      -0.33463794
O       17.08765200       6.08489100       9.08296000      -0.44112491      -1.29252479       1.41302130      -8.37363052      -0.04548863      -0.09127020       0.01894343
H       17.56027400       6.84048200       9.46585700      -0.14387955      -0.19843286       0.35400357      -3.50125551      -0.41880381      -0.15147950      -0.25196004
H       16.19250600       6.35861100       8.82862100       0.50851445      -0.32961158      -0.45491648      -3.49399233       0.52978915       0.24393272       0.22945011
O        5.40796700       8.38124900       3.70793900      -1.41339678      -0.44986221       0.04293042      -8.40353298      -0.06765224       0.16111736       0.49984926
H        5.90989100       7.62213500       3.37220300      -0.14845293      -0.55446785       0.11121321      -3.57400513      -0.00894089       0.30027744      -0.12352177
H        6.01200200       9.12329800       3.86732100       0.35486767      -0.00369646      -0.27593662      -3.51129293      -0.01208995      -0.50735271      -0.36625224
O        9.19194900      17.00720500       1.60259600      -0.41781286       0.90216378       2.20912110      -8.42044258      -0.44333106       0.37896943       0.03300748
H        9.53700900      17.89741100       1.43122500       0.35902140      -0.03396097       0.18769110      -3.51593733       0.28229082      -0.61326939      -0.41742653
H        9.76573500      16.35066700       1.17759700       0.29305555      -0.01373426      -0.00301917      -3.53770208       0.21056908       0.56746578       0.25728813
O        4.07285600      16.63302600      17.06109800      -0.04126273       0.49837033      -0.69590250      -8.24899101      -0.09696746       0.20418337      -0.07269326
H        4.47028000      17.29200200      17.65161000       0.08320800       0.04557463      -0.09924312      -3.53446198      -0.06160200      -0.71157438      -0.10624963
H        4.33122600      15.74344200      17.34881900       0.20775556      -0.08898374       0.44490202      -3.57429171       0.12117046       0.50032425       0.23276758
O        6.60836100       8.93392400       0.81868200       0.12313343      -0.39749527      -1.15350242      -8.38769722       0.16749188       0.13917041       0.14184703
H        5.77104400       9.41595000       0.73235300      -0.14402242      -0.39527407      -0.28423781      -3.50779915       0.39246640      -0.08740564      -0.18754281
H        7.27541200       9.33879700       0.24247100      -0.14388254       0.09419430      -0.19663613      -3.50122261      -0.54482627      -0.05571950       0.04585073
O        6.26821900      15.06417600      14.93008300      -1.17495585       0.23655586      -1.52084588      -8.31122208       0.27489707       0.02009860      -0.17825681
H        5.53003100      14.46817800      15.13198400      -0.37415880       0.16019014      -0.24767672      -3.55631399       0.45177019       0.12146974       0.30928087
H        6.89860700      15.05936000      15.66729800      -0.03762672       0.31582436      -0.23592773      -3.51247931      -0.66846013      -0.20911732      -0.15459430
O       14.65815100      17.41541700      16.54467500      -0.46766047       0.64725191      -0.31524678      -8.28999615       0.15630858       0.22565442       0.01819938
H       14.02041200      16.79616200      16.15646000       0.06998180      -0.02870035       0.00548506      -3.55309296       0.09910652       0.25624943       0.51135767
H       14.26185100      17.84452700      17.31908400       0.01341203      -0.11827683      -0.05552637      -3.52620173      -0.16339149      -0.58342385      -0.46628994
O        8.45154300       4.36542300       6.95491100       0.07641589      -0.53575323       0.61242599      -8.26290703       0.29779112      -0.57087350       0.05121841
H        9.15503800       4.75317000       6.41117700      -0.42466828      -0.01113251      -0.33734131      -3.50008821      -0.14581415      -0.07485371       0.60554767
H        8.71392100       4.38960800       7.88843700       0.21301902      -0.17720523       0.01585079      -3.47490454       0.07152642       0.16933171      -0.54928666
O       13.46922100       3.06484400      16.66010000      -0.09074902      -0.95453981      -2.06246028      -8.23494434      -0.45637643       0.00280167       0.02777161
H       13.75369800       2.86073000      17.56470500      -0.56560947      -0.02823478       0.18031846      -3.48127699      -0.00317955       0.57849383      -0.51026982
H       13.15298600       3.98095000      16.61955400       0.10185985       0.50807758       0.07685285      -3.51863813       0.15078257      -0.38574156       0.41558230
O       16.07567300       2.11783400      16.41315500       0.85604635       1.68741538       0.18471050      -8.17305565       0.05303936      -0.03067702       0.27456102
H       16.65272000       1.87340800      15.67276800       0.13184920       0.24962168      -0.46407118      -3.56107187      -0.12068227      -0.13786981       0.59944159
H       16.08194500       1.40926600      17.07556700       0.38495935      -0.11634349      -0.41080384      -3.53809977       0.32873034      -0.02492934      -0.70566511
O       11.85534600       0.44455800       0.65788900       1.41435528      -0.98291335      -1.99968076      -8.41296768       0.03997327      -0.15772893       0.26451570
H       11.60601900       1.04388800       1.37868000      -0.11637408       0.23412283       0.37090999      -3.43439102       0.39584297      -0.01927796      -0.47364175
H       12.62795600       0.80193900       0.19286200       0.05594302      -0.01795752      -0.09401733      -3.45577574      -0.45466676       0.14522742       0.24428239
O        2.07379800      12.62626900       1.26482700       0.45824932      -2.45582949       2.08576342      -8.30971909       0.25490022      -0.09795613       0.10280949
H        2.04700600      13.31154700       1.95081200       0.32976098       0.04559348       0.32659315      -3.51030064      -0.35382205      -0.49234980      -0.17516333
H        1.66731400      11.81339200       1.60379400       0.06483177       0.12411424      -0.26456664      -3.52773714       0.11651741       0.49999130       0.21147501
O       12.74325400       9.33104300       3.10439500      -0.29104902       0.07778241      -1.15176912      -8.37753677      -0.10032425       0.05389153       0.20745575
H       13.07447400       8.78107700       2.37725600      -0.09736043      -0.05305731       0.04478349      -3.52129889      -0.05225096       0.06322981       0.47192806
H       13.13053200       9.02873800       3.94077100      -0.03958842      -0.04492885      -0.42350496      -3.49582243       0.11147545      -0.02808280      -0.57767504
O        5.51243600      13.25949000       1.31297500      -0.55058269      -1.53597757       1.07461283      -8.12733555       0.13636564      -0.48127180       0.28131124
H        4.62624100      13.62114300       1.47034600      -0.24933560      -0.43228476      -0.04018413      -3.56168270       0.29037723      -0.49576116       0.08476317
H        5.68772200      12.54614100       1.94646200       0.08800590       0.11038364       0.19083043      -3.52863598      -0.60250360       0.43678230      -0.05667445
O       17.56754300       7.35768600      15.72481700       2.19857473       0.62871408       0.51765387      -8.44726181      -0.02438118       0.11867176      -0.15722694
H       17.23054900       8.24519300      15.92398300       0.06751715       0.50488522       0.36395884      -3.47895765      -0.09019259      -0.51150298       0.02986377
H       16.84095700       6.71705400      15.77542900       0.22921936       0.16556404      -0.09008522      -3.50058270       0.15756686       0.27023798       0.13584861
O       13.29590000      13.73603900       5.94218200      -0.69448729       0.45953983      -0.59423993      -8.34825516      -0.00151221      -0.00038403       0.04451757
H       14.03207300      13.97367000       5.35696400       0.30888063      -0.03834271      -0.24557585      -3.51167727      -0.49942866      -0.22865221       0.02662148
H       12.51072100      13.53568000       5.40903300      -0.04250883       0.15815589       0.13039239      -3.51941204       0.46932593       0.22543934      -0.03639324
O        7.77109100      16.56855500      10.01900500       0.17805388      -0.77013287       0.30551518      -8.36000443       0.00219866       0.09077699       0.00676543
H        8.32369500      15.90095400       9.58330000       0.18836544      -0.05433977      -0.02104787      -3.50337362      -0.00145037       0.34404138       0.43723404
H        8.23762300      16.91870800      10.79401400       0.60157091       0.17851718      -0.07935652      -3.48998356       0.01241228      -0.43497568      -0.40461659
O        4.61671200       5.22950800       7.31474800      -0.71679320       0.80989750      -0.58616511      -8.28968811      -0.56166208      -0.43317989       0.16112404
H        4.46257500       6.14166300       7.02300100       0.04039657      -0.21058475       0.06102784      -3.55972433       0.33551913      -0.55486274      -0.18808900
H        4.70530300       4.65280000       6.53985700       0.07563898       0.04225477       0.12096372      -3.53947496      -0.05654529       0.76541281       0.06465112
O       12.31276300       4.23503800       8.68787300       0.75797926       1.10986992      -0.26933275      -8.39386749      -0.14865124       0.07925379      -0.19628432
H       12.98212200       4.93607800       8.72529400       0.27970523       0.10215778       0.08106457      -3.48155975      -0.46836957      -0.18702462       0.24965318
H       11.61677400       4.41747000       9.33842300      -0.18064098      -0.21664268      -0.34645731      -3.45830822       0.62473011       0.13225482      -0.02759348
O       11.51982400      13.39297700      15.61091200      -0.92755203      -0.28233519      -0.71801438      -8.42909908      -0.04974959       0.17676790      -0.16209480
H       10.70769000      13.11786000      15.15742700      -0.36857896       0.20663306       0.47313307      -3.49445200       0.35769475      -0.23115668       0.39510563
H       11.84293600      12.66548200      16.16521100      -0.21387021       0.00823121      -0.34040112      -3.54253006      -0.30807662      -0.03296853      -0.30540216
O        6.31082700       6.03917700       9.39021800       0.05856606       0.56754893      -2.27677751      -8.24518013       0.31463158       0.04301852       0.28068799
H        7.13132200       6.05716700       9.90729200      -0.12149747       0.32153074      -0.08653884      -3.54055405      -0.50707340      -0.08005584       0.17274646
H        5.75494100       5.30350800       9.69134900      -0.00536622      -0.11590102       0.71530445      -3.53008795       0.43336871       0.24297422      -0.16435055
O        9.60175600       7.13179200      10.19289300       0.47828959      -0.89525942       0.25332341      -8.44653416      -0.11371489      -0.23470898       0.07437608
H        9.79513600       6.38366000       9.60654600       0.40587969       0.01221178       0.02343312      -3.44054842       0.30363566       0.57209575       0.09985007
H       10.33686200       7.76397800      10.16360400      -0.62905919      -0.41632682       0.33922452      -3.47755909      -0.21551225      -0.39779449      -0.23054159
O       16.91977600       2.65517400       4.26343500      -0.04708435      -0.64836179       0.04322417      -8.25852299       0.11221209       0.00356823       0.30651903
H       17.14912000       2.18073700       3.44905700       0.02937991       0.32487392       0.27303057      -3.57132864      -0.56766909       0.35623991       0.21132067
H       16.02415000       3.01915900       4.18427800       0.39338474      -0.14227806      -0.18318421      -3.55874014       0.44599774      -0.41665697      -0.44022363
O        8.57558000       8.04808600      14.33871500       0.87278314      -0.57710762      -0.63795165      -8.32300663      -0.05751289      -0.11658671       0.06600573
H        9.19816700       8.58093800      14.85770900       0.00783844       0.00521196      -0.17558078      -3.52345037      -0.04391730      -0.38053387      -0.40055770
H        9.00501800       7.22159000      14.06781900      -0.08592509       0.32475413      -0.59009310      -3.51755905       0.07188694       0.46837866       0.27204639
O       16.64799900      13.67013500       8.87839600       0.05343003       0.00748850      -1.49538812      -8.34261703       0.04136438      -0.03475635       0.02658484
H       17.37281900      14.22040300       8.54262400      -0.25240426       0.39558120      -0.37311744      -3.48615694      -0.46653739      -0.07304101       0.34218353
H       16.12277500      14.18025000       9.51465200       0.07390794       0.20646994       0.00985291      -3.52397871       0.39390486       0.13170446      -0.29266375
O       17.77554400      12.74910600      13.94384500      -0.52267689       0.56018791      -0.27062509      -8.52449989       0.17561564      -0.22249028      -0.04799469
H       17.08177900      12.14654500      14.25450200      -0.28659485       0.09470454      -0.13384407      -3.45000124       0.07214946       0.55101490      -0.28754973
H       17.36772300      13.52445600      13.52741700      -0.09809252      -0.50459511       0.12471108      -3.51450920      -0.28462470      -0.29987159       0.34514964
O        3.97847000      10.66812500      14.12326900       0.84067449       0.90636434      -0.41175057      -8.21639252       0.15021583      -0.13165668       0.06767559
H        3.58245000      11.27229400      13.47593000       0.40467549      -0.18930469      -0.12454512      -3.55612755       0.08812037      -0.62063503       0.09850872
H        3.97639100       9.76592500      13.76700000       0.04323218      -0.10839941       0.40693900      -3.55784321      -0.15600565       0.58693284      -0.25122559
O        5.00847300       5.13283100       3.76394900      -1.37852656      -0.77238975       0.23575805      -8.41898918      -0.12180986       0.03215178       0.17253447
H        4.24652800       4.58087200       3.52797900      -0.37044217      -0.08125328       0.05145502      -3.50713348       0.49313152      -0.07136510       0.11977082
H        5.73051200       4.56843700       4.08178000       0.16690181      -0.01611700       0.61023516      -3.51440859      -0.37036416       0.03027208      -0.26103142
O        9.32556000       9.61399300       6.48779900       0.94430263       0.63870718      -0.39644248      -8.40722275      -0.05050196       0.01618393       0.08408613
H       10.28851800       9.51502800       6.42601900      -0.10521505      -0.09456933      -0.05057408      -3.48408031      -0.47599128      -0.16147621      -0.26138300
H        8.89734300       9.00395000       5.86701200       0.35134137       0.25773483       0.05470281      -3.47656155       0.53451532       0.13118058       0.15508711
O        1.87853000      12.37329500      15.53708600       0.64538598       0.24469016       0.87476934      -8.24944878       0.11293137       0.01583697       0.01767564
H        1.67964200      13.08211600      14.90548800       0.47967251      -0.15445915       0.02564209      -3.54999065      -0.43264008      -0.43264627       0.32511541
H        1.09385500      11.81526000      15.65447900       0.04635642       0.06280951       0.00299606      -3.53871202       0.22350803       0.56969583      -0.34758905
O        1.07872900      10.77883900      11.89051400       1.00571259       0.64465778       1.55812617      -8.31062126       0.01669553      -0.00899202      -0.05621935
H        1.04778300      11.25161700      12.73693200      -0.05284211      -0.33715999       0.31223842      -3.55603075      -0.39936754       0.13632895      -0.39968637
H        0.41361200      11.14868800      11.28907500      -0.21822841       0.27982888       0.04737519      -3.53689384       0.21466112       0.21162780       0.55250657
O        3.20566400       0.18290100       7.12231900       0.61058713      -0.63479075      -0.18864181      -8.27601051      -0.09124173      -0.10665068      -0.31598914
H        3.37881800       0.00378600       8.05978100       0.00327610       0.13984802      -0.03171304      -3.57968092       0.06503922       0.58326167      -0.32290351
H        3.31957600       1.13023400       6.94772800      -0.45461355      -0.32003323       0.58733610      -3.53177214      -0.04169625      -0.46692702       0.55650204
O        7.13472000       6.66012300       6.58003300       0.54027274       1.01598429      -2.48088538      -8.21077156       0.28177670       0.34687525      -0.76841772
H        6.73156700       7.29610500       5.96856500      -0.22565834      -0.04145568       0.02057186      -3.54281378       0.02395042       0.17256533       0.45604244
H        7.62221400       7.13833700       7.26891600       0.00924389      -0.27442262       0.26102371      -3.55723381      -0.47213444       0.08951075      -0.22319779
O        0.57895400      14.80765300      18.05754000       1.43550488      -0.71559489       0.85324828      -8.26174450      -0.07527021       0.04104398       0.20727761
H        0.06943600      14.37192700      17.35651600      -0.01350263      -0.00215022       0.28435751      -3.54832697       0.05394918       0.39322412       0.31112653
H        0.02991500      15.48459300      18.48322400       0.23012819       0.11125897      -0.76057563      -3.53927469      -0.04019693      -0.31450957      -0.53907359
O       14.90457800       1.59173100       2.13950900      -1.60030128      -0.95082017       1.39551374      -8.48096085       0.02830270       0.03485310      -0.08518524
H       14.48264600       2.18803400       1.50131100       0.11609034       0.39434756      -0.18513537      -3.43340731      -0.06613499      -0.33274218       0.39814335
H       14.23260800       1.01679100       2.53800300       0.15759384       0.06242850      -0.14989666      -3.46398115       0.04778403       0.31700426      -0.34731430
O        7.31089400      13.81371200       4.50966100       2.07364583       1.59858558      -0.81513588      -8.38811588      -0.10450621       0.03937093      -0.02227950
H        7.76473600      13.16548300       3.94865500      -0.19773949      -0.37045996      -0.05767290      -3.48834467       0.06652669       0.38476813       0.44756472
H        7.92981400      14.15663200       5.17316800       0.12259164      -0.14325311      -0.09217061      -3.51013374       0.01756400      -0.42309222      -0.36593777
O       13.18728300       0.14964600      11.12045200       2.32755923       1.14568229      -0.01883913      -8.28862572       0.22187161      -0.14783731       0.07648198
H       12.49890500       0.79783600      11.33698500      -0.17077227       0.06746209      -0.35939089      -3.53445816       0.33510795      -0.26346260      -0.61143649
H       13.20473600       0.00466900      10.16150800      -0.44741282       0.01533818       0.13063847      -3.53853846      -0.50872886       0.49005234       0.38502741
O       15.05990300      14.54747000      14.55633600       1.52995700      -0.99811168       1.65148056      -8.40945053       0.31479734      -0.07450134      -0.03222148
H       14.83846300      13.60442600      14.50602600       0.13135557       0.38198675       0.07275683      -3.49784756      -0.41544390       0.57372159      -0.12472408
H       14.43038500      15.05637300      14.02189800      -0.12723716      -0.19363552      -0.48351967      -3.53277636       0.04150390      -0.50580931       0.04612472
O        3.10969500      13.84926600       7.86695500      -0.76692260      -0.96544864       0.98847181      -8.39096928       0.00794893      -0.11184792       0.02180375
H        2.17735200      14.03374400       8.06087300      -0.36756482       0.18184213       0.34676698      -3.48909712       0.33418632      -0.13372138      -0.39399761
H        3.20635900      13.62432900       6.92836200      -0.11529000      -0.33241299      -0.03404640      -3.48313570      -0.30599642       0.26677197       0.36697292
O       15.06638400      14.68967500       0.74884000      -2.35295557       0.09917489      -0.10752452      -8.28859329       0.03886947      -0.00623629      -0.06830131
H       15.86754300      14.23399100       0.44652000       0.15788800      -0.36579785      -0.15140667      -3.53398848      -0.16053522       0.23915061       0.46162486
H       15.15092900      14.90101000       1.69175400       0.17432350      -0.00271605      -0.13251343      -3.51575375       0.19799522      -0.30541974      -0.47476026
O        7.91763100      18.38899900       4.38624200       1.02591225      -0.60586675      -1.27577245      -8.41943550       0.05431061       0.18049026       0.11486049
H        8.72980800      18.52359600       3.87325900      -0.18208922       0.45755573       0.12493832      -3.49060965      -0.50864780      -0.48161507      -0.04814557
H        7.37957100      17.70050300       3.96509800       0.21418994       0.19376711       0.41299124      -3.52006865       0.48197746       0.19957042      -0.13514379
O        6.21560800      12.31704700      17.24002600      -2.74122923      -1.35553035      -0.22266667      -8.22839928       0.18352172      -0.06126019      -0.41644114
H        6.28455400      11.63017400      17.92146000       0.09170144       0.13988488       0.03212803      -3.52533960       0.17775492       0.59913933      -0.25111037
H        7.10480200      12.59786600      16.97287100      -0.07927381      -0.14541445       0.44094951      -3.51068640      -0.28288800      -0.44052467       0.34785262
O       10.91022800       1.49272000       9.32804900       0.13050294       0.60709161       0.30866832      -8.43048859      -0.00232105      -0.04833397       0.19546935
H       10.30731600       1.64098100      10.07331100      -0.19767920      -0.05916268       0.36421677      -3.46037579      -0.00756428       0.10103075      -0.59059119
H       10.62782600       2.03048800       8.57177400       0.18843462      -0.19891842      -0.03126390      -3.50391626      -0.06432094      -0.13052158       0.40413320
O        3.05586800       5.37352000      11.12564900      -1.55816328      -0.07907871       0.64008332      -8.34346199       0.08908194      -0.09673996       0.26373142
H        3.15618600       5.17588200      10.18131000       0.33006862      -0.26406096      -0.12246151      -3.54445648       0.21236509       0.08776905       0.36457950
H        3.91217300       5.27224200      11.56992700       0.18543139      -0.27755581       0.21364973      -3.50831318      -0.26595894      -0.04307764      -0.53487235
O       12.34355600      10.07014800      16.20301600       0.38297434       1.00032697      -0.16107150      -8.43014717       0.14923246       0.14189987       0.04123770
H       11.37756500       9.98210600      16.19991000       0.19712966       0.12032750       0.28850315      -3.50031281       0.39992541      -0.25058740       0.10832719
H       12.72204900       9.45672100      16.85212900      -0.27826123       0.28579780      -0.02313233      -3.49872732      -0.53892344       0.20670584      -0.12416685
O       10.28509500      15.39443700       3.77467000       1.72442212      -0.68930858      -0.74119504      -8.24312973      -0.07338318      -0.20017734       0.67076057
H        9.88485800      14.63348200       3.32560700      -0.21596499       0.24302439      -0.34462231      -3.50600910      -0.22226632       0.64958227       0.16162653
H        9.58622500      15.99266600       4.08224100       0.40435723       0.07851864       0.09683187      -3.55574751      -0.08514786      -0.47739822      -0.37176856
O       10.83079200       7.55881400       1.56541800      -1.22185173       0.01044345      -0.53307012      -8.35912514       0.14514554      -0.12389331      -0.31608450
H       10.32581500       8.21804800       2.06672600       0.26607244      -0.32171344      -0.11830411      -3.53506804       0.37992537      -0.45397234       0.13271375
H       11.20874400       6.90757000       2.17691700      -0.34710594       0.00520863       0.50366780      -3.49655247      -0.45385963       0.53837824       0.01413434