ITEM: TIMESTEP
0
ITEM: NUMBER OF ATOMS
192
ITEM: BOX BOUNDS pp pp pp
0.0000000000000000e+00 1.2425416000000000e+01
0.0000000000000000e+00 1.2425416000000000e+01
0.0000000000000000e+00 1.2425416000000000e+01
ITEM: ATOMS id type element x y z fx fy fz
1 1 H 5.67314 9.52894 6.24718 0.0667187 -0.330722 -0.747051
2 1 H 5.82364 8.73234 4.88635 -0.305683 0.41849 0.655888
3 1 H 2.01779 8.39991 7.96768 -0.300536 0.354637 -0.568429
4 1 H 1.19966 9.03636 6.76991 0.701029 -0.297633 0.555078
5 1 H 9.24191 8.77688 9.83854 0.924098 0.261834 0.412794
6 1 H 10.1086 10.0886 10.0313 -0.0937867 -0.607274 -0.103175
7 1 H 1.45494 11.2012 7.06703 0.623083 0.166727 -0.169333
8 1 H 3.03061 11.2241 6.90641 -0.506333 0.022694 0.0262956
9 1 H 5.64442 6.39437 10.6837 -0.193283 0.864046 -0.0903878
10 1 H 4.99759 7.83802 10.7646 0.563944 0.0132592 -0.0740042
11 1 H 11.2251 3.32148 7.50872 -0.0528558 0.452707 0.100857
12 1 H 10.5442 4.63348 8.07807 -0.308475 -0.417062 0.0476127
13 1 H 10.5685 10.9903 5.45056 -0.101284 -0.0873582 0.597255
14 1 H 11.2361 10.6077 6.83512 -0.232853 0.17985 -0.391008
15 1 H 5.1085 7.33853 1.20141 0.271814 0.176626 -0.396627
16 1 H 5.71246 8.8028 1.18733 0.0328654 -0.233898 -0.333647
17 1 H 6.05459 3.20439 6.11618 -0.181304 0.394426 1.06197
18 1 H 6.56618 3.09436 7.61125 -0.315734 0.381109 -0.733808
19 1 H 4.51587 3.15091 9.51679 -0.485021 -0.30395 -0.514374
20 1 H 3.4249 2.46619 8.59484 0.351888 -0.193102 0.531201
21 1 H 4.23576 1.19982 4.69359 0.351795 0.226673 -0.268164
22 1 H 4.97249 2.54672 4.30354 -0.305746 -0.519032 0.270012
23 1 H 1.29648 8.71528 10.1775 -0.304511 0.661796 -0.550081
24 1 H 1.19963 10.1823 9.58808 0.151381 -0.70906 -0.240013
25 1 H 7.05871 10.6456 11.2262 -0.0285415 -0.629413 -0.0373775
26 1 H 7.19763 9.18735 10.6235 -0.350915 0.781688 0.305049
27 1 H 7.99262 3.67761 1.61765 0.043938 0.278163 0.483955
28 1 H 7.06461 3.83315 2.89187 -0.087291 0.154964 -0.678779
29 1 H 6.32661 6.22461 3.67427 0.792017 -0.199342 -0.0749025
30 1 H 7.23727 5.96798 2.40388 -0.201069 0.338725 0.66529
31 1 H 8.85949 2.60677 11.1124 0.968394 0.0439136 -0.324018
32 1 H 10.0629 2.31382 10.125 -0.465992 0.293775 0.0481609
33 1 H 3.60945 8.47419 5.59158 -0.476605 0.641505 -0.730283
34 1 H 2.77538 9.78196 5.27043 0.00505441 -0.697253 0.0541348
35 1 H 9.06519 6.57244 6.91538 -0.586263 0.0556808 0.00167638
36 1 H 8.55252 7.78344 7.79838 -0.026423 -0.25498 -0.239024
37 1 H 9.79627 9.07718 6.20723 -0.606277 -0.490205 -0.140044
38 1 H 8.69455 9.12111 5.06998 -0.0289058 0.241521 0.322919
39 1 H 4.62128 1.20981 10.5424 -0.485918 -0.328703 0.406763
40 1 H 3.24523 1.7854 11.0756 0.796722 -0.182881 -0.215464
41 1 H 3.02049 5.4854 9.04481 0.0888324 -0.720159 0.987733
42 1 H 3.55104 4.98189 10.4498 -0.850795 0.228394 -0.987902
43 1 H 11.2428 7.46998 5.80392 0.225418 -0.421712 0.861032
44 1 H 11.253 6.38169 6.95483 0.265603 0.750823 -0.355356
45 1 H 4.64985 5.76937 6.90702 0.117539 -0.214592 0.831923
46 1 H 4.44726 4.43763 7.74038 -0.195364 0.690569 0.095273
47 1 H 6.03786 11.0625 1.82769 0.741687 0.376007 -0.0548053
48 1 H 7.61273 11.2257 1.8748 -0.960858 -0.209406 -0.140482
49 1 H 3.84123 9.60889 9.6956 -0.311581 0.56734 0.564845
50 1 H 3.97834 9.94863 11.2366 -0.548307 0.0137513 -0.554605
51 1 H 8.27944 8.86244 2.92647 -0.384867 -0.00566225 0.120984
52 1 H 6.78543 9.38082 3.01752 0.506553 -0.310182 0.131117
53 1 H 4.20137 8.44633 7.70852 -0.165449 0.00613476 0.447813
54 1 H 3.78748 7.54343 8.94243 0.255351 0.0143657 -0.120803
55 1 H 3.17823 1.92208 6.48145 -0.374837 -0.204578 -0.330507
56 1 H 1.8041 2.01803 5.6994 0.234508 -0.433058 0.194971
57 1 H 8.06666 1.20185 2.74299 -0.46416 0.319995 -0.531884
58 1 H 7.55815 1.54924 1.2836 0.100534 -0.566709 0.651501
59 1 H 5.43219 4.16231 11.2384 0.145862 -0.226954 0.294955
60 1 H 6.79508 3.35518 11.2267 -0.56712 0.113642 0.227458
61 1 H 8.06113 1.36868 7.66977 0.293903 -0.0217499 -0.388278
62 1 H 9.60902 1.5466 7.3844 -0.688437 -0.156238 -0.138998
63 1 H 9.51223 7.17885 4.48329 0.0357671 -0.543061 -0.700769
64 1 H 9.2352 6.54092 3.06014 0.392656 0.856655 0.537839
65 1 H 2.04782 1.67759 1.20276 -0.176716 0.314912 0.514513
66 1 H 1.9461 2.69279 2.41441 -0.0264337 -0.485112 -0.323403
67 1 H 9.27627 3.53049 6.52175 -0.252222 -0.144527 0.665923
68 1 H 8.70298 3.44587 7.99594 0.756582 -0.357444 -0.462843
69 1 H 7.72329 10.9836 7.97956 0.739567 -0.0394573 -0.197998
70 1 H 9.23743 11.1506 7.54536 -0.894038 0.185072 -0.185424
71 1 H 11.2447 8.28722 3.7783 0.618385 -0.220865 -0.254291
72 1 H 11.2293 7.33296 2.51409 0.00904153 0.179326 0.233096
73 1 H 2.69991 6.97099 10.7575 0.0149268 0.0652397 0.266076
74 1 H 1.19706 6.80342 11.2291 0.385268 0.162326 -0.040782
75 1 H 6.75529 4.76053 9.0351 0.163866 0.300622 -0.206747
76 1 H 7.02312 5.3323 7.58238 0.0857876 -0.406724 -0.0643013
77 1 H 6.05652 7.44468 6.81302 0.234563 0.353473 0.384999
78 1 H 7.3823 7.61989 5.9641 -0.248701 0.255608 0.131381
79 1 H 8.79104 4.61887 9.85168 0.215208 0.502082 -0.38933
80 1 H 8.62124 5.9232 8.9691 -0.341745 -0.371068 0.436662
81 1 H 11.1581 8.5711 11.2262 -0.0107848 -0.545592 -0.323494
82 1 H 11.2196 7.00335 11.0084 -0.279512 0.297947 0.111881
83 1 H 9.12631 3.22052 4.35095 0.247936 0.356859 -0.672965
84 1 H 10.1329 4.2508 3.69187 -0.618595 -0.457503 -0.0339982
85 1 H 10.9252 7.59042 8.9185 -0.4744 0.814162 -0.330461
86 1 H 10.7 8.98803 8.20786 -0.183456 -0.770541 0.662448
87 1 H 8.80926 5.22395 5.20023 -0.620337 -0.291486 -0.347642
88 1 H 7.35522 4.61538 5.04376 0.660155 0.0870318 0.277856
89 1 H 1.19761 6.16221 1.67577 0.363797 -0.376242 -0.663807
90 1 H 2.67469 6.46926 1.19306 -0.320011 -0.439568 -0.211004
91 1 H 7.1111 11.2273 4.34182 -0.326135 0.380409 0.863148
92 1 H 7.00902 11.2469 5.92241 0.014112 0.0252646 -0.859717
93 1 H 2.18999 6.69303 6.58949 -0.0411345 -0.333777 -0.186924
94 1 H 1.19416 5.54941 6.13176 0.267156 0.229867 0.0303686
95 1 H 4.49344 4.60386 4.91282 -0.228767 0.438949 0.563232
96 1 H 3.16057 4.63564 5.76811 0.829383 -0.205249 0.175497
97 1 H 8.60144 7.5359 1.20379 -0.15822 1.04386 -0.151195
98 1 H 9.6315 8.73922 1.19602 -0.450175 -0.14026 0.119563
99 1 H 1.5678 7.91783 3.41413 0.147081 -0.290826 0.0556117
100 1 H 1.18881 7.75483 4.94346 -0.112832 -0.076479 -0.296387
101 1 H 4.6481 2.73664 2.13716 0.0176388 -0.198484 -0.249185
102 1 H 5.90827 3.00947 1.21705 -0.362724 -0.343152 0.698925
103 1 H 5.81664 11.2233 9.04942 -0.229479 -0.516566 0.079221
104 1 H 4.84671 10.5896 7.96924 0.411829 0.163394 0.563685
105 1 H 4.64618 8.39597 3.06569 -0.665573 -0.107052 -0.395383
106 1 H 3.30787 9.23037 3.21318 0.168317 -0.806934 -0.0295721
107 1 H 9.72252 11.2372 2.47497 0.0599255 -0.131723 0.494315
108 1 H 10.0068 10.0864 3.52569 -0.256629 0.546649 -0.362778
109 1 H 9.2578 5.42498 1.19864 0.877127 0.324299 -0.0733633
110 1 H 10.7069 5.1492 1.77572 -0.484662 0.198649 -0.474688
111 1 H 7.14767 2.27041 4.43001 -0.224215 -0.712596 0.17558
112 1 H 6.37143 1.18459 5.28294 0.704882 0.445759 -0.0455323
113 1 H 7.73268 5.97447 11.2182 0.309436 0.725489 -0.0111353
114 1 H 8.33002 7.43811 11.3183 0.0849334 -0.556555 0.125209
115 1 H 1.44805 2.89726 9.86366 -0.120259 0.364294 -0.479034
116 1 H 1.19795 4.26752 9.10942 -0.225346 -0.467222 0.100887
117 1 H 11.2233 3.81774 11.2328 0.37938 0.350331 -0.150625
118 1 H 11.2646 4.979 10.1564 -0.0359129 -0.763552 0.140895
119 1 H 1.18374 10.9216 3.22109 0.520987 0.0303181 0.0150604
120 1 H 2.65415 11.2716 3.69488 -0.402928 -0.0134432 -0.416925
121 1 H 6.40562 2.03257 9.52998 -0.0764517 -0.278815 -0.317514
122 1 H 5.42664 1.41043 8.45129 0.0245464 -0.138234 0.339193
123 1 H 2.73064 8.66741 1.16809 -0.485381 -0.192666 -0.0734016
124 1 H 1.19083 8.31757 1.29327 0.691602 0.134308 -0.0864109
125 1 H 2.93802 5.79119 3.9138 0.306405 -0.0557217 0.0124024
126 1 H 4.1485 6.70522 4.37024 -0.182529 -0.299614 0.175572
127 1 H 6.29885 7.65702 9.00592 0.405073 0.0228729 -0.307295
128 1 H 6.87426 9.02762 8.45871 0.121258 -0.315633 0.744829
129 2 O 5.77323 9.61467 5.28617 0.971325 -0.796267 0.522971
130 2 O 1.28596 8.99254 7.73507 -1.45676 -1.58488 -0.302571
131 2 O 9.25442 9.7408 9.73084 0.922725 -1.2393 0.584112
132 2 O 2.29747 10.9702 7.48856 0.347369 2.13447 0.161207
133 2 O 5.08883 6.98458 11.2165 -0.887956 -0.252975 0.331078
134 2 O 10.9442 3.78208 8.31485 1.21047 -0.43148 -0.0391649
135 2 O 11.2261 11.255 6.11276 0.510001 0.130036 0.0473602
136 2 O 5.92815 7.85724 1.20474 -1.21692 0.963701 -1.15462
137 2 O 6.73761 2.82953 6.69398 -2.01288 -1.15758 -0.381125
138 2 O 3.56818 3.09793 9.31683 1.39956 1.14881 -2.10757
139 2 O 4.16929 2.01789 4.17664 0.623112 -1.26385 -1.14159
140 2 O 1.69726 9.5986 10.1818 0.194107 -0.183266 1.22132
141 2 O 7.14739 10.1318 10.4082 -0.90949 0.986896 1.178
142 2 O 7.83639 3.37378 2.52549 0.0541795 1.99692 0.59624
143 2 O 6.39159 6.32951 2.71215 -0.517437 -1.91402 1.07226
144 2 O 9.37463 1.91002 10.6765 -0.503446 -0.103932 0.648467
145 2 O 3.53084 9.42558 5.76357 -0.878447 0.0368076 1.92693
146 2 O 9.33819 7.3393 7.44291 -0.600693 0.0366867 0.776845
147 2 O 8.95349 9.47338 5.93586 1.51066 -1.00124 0.219519
148 2 O 3.65886 1.20025 10.4218 -0.16003 -1.9545 1.26773
149 2 O 3.79509 5.43258 9.62628 1.31992 0.710792 -0.466376
150 2 O 11.0679 6.53971 6.01586 0.409972 -0.702462 -1.4654
151 2 O 4.95234 4.85537 7.02533 -1.31178 -0.517305 -1.39672
152 2 O 6.83751 11.1873 1.29302 -0.581544 0.396757 -0.903252
153 2 O 4.44372 9.92746 10.3858 -0.267633 -1.567 2.33446
154 2 O 7.49313 9.10645 2.41355 1.09355 0.455753 1.25416
155 2 O 4.28009 7.56552 8.10711 -2.20679 -1.03003 -1.57812
156 2 O 2.52656 2.52893 6.09679 -1.77451 -0.780239 1.69545
157 2 O 7.28528 1.27376 2.17273 0.14518 -1.84221 -0.567009
158 2 O 6.39336 4.23257 11.1283 0.502324 -0.112701 -0.276588
159 2 O 8.95395 1.17938 7.99833 0.758919 1.09079 -0.0126202
160 2 O 8.82507 6.9508 3.83777 -0.745165 -0.41821 0.65357
161 2 O 2.53217 2.33091 1.73142 -0.338365 0.0808231 -0.145405
162 2 O 8.6154 3.88635 7.13617 1.67163 0.394485 1.32495
163 2 O 8.60682 11.2536 8.27518 -0.682746 0.555099 -1.0993
164 2 O 10.7938 8.08595 2.94334 2.12486 0.178953 1.38845
165 2 O 1.91193 6.40763 10.7065 -1.16527 0.550506 0.500085
166 2 O 6.54236 5.47359 8.41292 1.55763 0.717725 1.84389
167 2 O 6.67814 7.00157 6.21457 -1.11897 0.933218 -0.17887
168 2 O 9.1956 5.46436 9.60192 0.353703 -0.369933 -1.87641
169 2 O 10.6358 7.75415 11.1992 0.400268 -0.300857 0.581704
170 2 O 10.0587 3.40105 4.15374 0.636534 -0.161797 1.01739
171 2 O 11.2645 8.49407 8.8228 1.34835 0.0288839 -0.579028
172 2 O 7.89976 5.24908 5.53651 0.157406 0.0933316 -1.34197
173 2 O 2.10347 6.34938 1.96781 -1.36174 -0.300965 -0.650378
174 2 O 7.56936 11.007 5.16787 0.931415 1.87005 -1.04489
175 2 O 1.30041 6.32417 6.70565 -0.00139505 -0.229899 0.228584
176 2 O 3.68113 4.12098 5.13168 -0.105868 1.85883 -2.08602
177 2 O 9.54102 7.77393 1.16587 -1.06022 -1.28106 -1.3094
178 2 O 1.89217 8.00502 4.32412 -2.18206 1.30875 1.03777
179 2 O 4.98626 2.70835 1.22845 0.496366 0.578704 -0.847976
180 2 O 4.91716 11.2387 8.68666 0.128689 1.63448 -2.53927
181 2 O 4.25401 9.20684 3.42568 0.684109 0.68392 -1.72666
182 2 O 10.1469 10.3755 2.61045 0.0445748 0.667427 -0.353899
183 2 O 9.95413 4.75817 1.30531 -0.0839695 -0.342711 0.262111
184 2 O 7.15623 1.35049 4.73753 0.0919786 -0.351582 -0.604919
185 2 O 7.78992 6.83816 10.7804 -1.09104 1.22455 0.812057
186 2 O 1.58764 3.85659 9.89692 -1.70032 0.355656 0.767012
187 2 O 10.7542 4.59216 10.8849 1.1006 -0.402024 1.49524
188 2 O 1.72612 11.2125 3.97084 0.150585 0.0647758 0.46112
189 2 O 6.25314 1.27696 8.94117 0.247634 0.16172 0.443047
190 2 O 1.87461 8.971 1.50862 -0.275689 0.857384 0.0378884
191 2 O 3.45076 6.58812 3.70667 2.67991 -0.874044 0.282505
192 2 O 6.09112 8.58687 8.82387 1.59409 0.305369 -0.850798
ITEM: TIMESTEP
200
ITEM: NUMBER OF ATOMS
192
ITEM: BOX BOUNDS pp pp pp
-5.0183144760084719e-01 1.2927247447600845e+01
-5.0183144760084719e-01 1.2927247447600845e+01
-5.0183144760084719e-01 1.2927247447600845e+01
ITEM: ATOMS id type element x y z fx fy fz
1 1 H 5.78629 9.88758 5.981 -0.220287 -0.733161 0.295815
2 1 H 4.86653 10.5328 4.89143 1.36373 -0.487679 0.733879
3 1 H 1.37858 8.48489 8.39531 -0.830079 -0.433951 -0.746237
4 1 H -0.116116 8.59759 7.93855 -0.204221 -0.255316 0.27568
5 1 H 9.36778 8.6542 10.2721 -0.403776 -0.533012 0.119289
6 1 H 10.1404 9.37684 11.3132 0.174123 -0.0128805 0.124599
7 1 H 1.24955 12.1696 6.26104 0.339631 -0.182945 0.0270552
8 1 H 2.04792 11.5326 7.42602 -0.282985 0.478478 -0.52693
9 1 H 4.30703 6.54886 10.7976 0.0516726 1.18973 0.147761
10 1 H 4.53059 8.08239 11.1821 -0.447015 0.320725 -0.137993
11 1 H 12.9408 3.8556 7.62896 0.279202 0.0138111 -0.184164
12 1 H 11.4931 3.85727 8.22564 -0.028371 -0.0603845 -0.245541
13 1 H 11.5445 11.2857 6.33398 0.383271 0.266748 0.243653
14 1 H 12.6333 12.1104 7.13239 0.00747009 -0.400734 0.137686
15 1 H 6.62263 8.23369 0.328055 0.00357239 0.38078 0.158411
16 1 H 6.11221 9.744 0.236974 0.130529 -0.197985 0.427913
17 1 H 4.99648 2.75297 6.38536 -0.712471 0.677556 -0.505529
18 1 H 5.77561 2.05204 7.35795 0.0314752 -0.725389 -0.0230913
19 1 H 3.4509 1.15694 8.27683 0.206341 -0.412317 0.0403329
20 1 H 3.85323 2.31193 9.17945 0.264852 -0.0493144 0.727266
21 1 H 3.5027 0.849703 4.18337 0.8884 -0.497436 -0.359654
22 1 H 5.04469 0.806555 3.88485 -0.947353 -0.00592481 -0.0332856
23 1 H 0.634908 9.50124 11.289 -0.0730233 0.125536 -0.787981
24 1 H 0.842568 10.813 10.4636 -0.00204874 -0.686018 0.215684
25 1 H 5.63811 11.2638 10.5388 -0.411952 -0.280815 -0.143282
26 1 H 6.49239 10.5574 11.6209 -0.324092 0.265773 -0.505796
27 1 H 8.75049 3.9212 2.97523 -0.442565 0.495693 -0.173742
28 1 H 7.5953 4.62968 2.20283 0.688791 -0.944413 0.349871
29 1 H 7.42663 6.63769 3.30724 0.501649 0.236907 -0.0760359
30 1 H 5.98213 6.66437 2.69945 0.331638 -0.355603 0.628569
31 1 H 10.0813 2.66639 10.639 -0.081481 0.0700589 0.612756
32 1 H 9.61376 1.61823 11.7329 0.0350682 0.477417 0.477569
33 1 H 3.06101 9.31224 6.75972 -0.313014 0.0910759 -0.955947
34 1 H 2.16387 9.65891 5.50123 -0.219234 -0.311724 0.00585394
35 1 H 9.61586 6.5675 6.5456 -0.518629 -0.470005 -0.388489
36 1 H 8.15306 6.72457 7.3156 0.531713 -0.207548 -0.538652
37 1 H 10.1967 9.29727 6.83031 -0.175034 -0.562268 1.327
38 1 H 9.6381 10.0672 5.63824 0.033474 0.0541628 0.00582197
39 1 H 3.31235 -0.823278 12.3802 -0.00858519 -0.239807 -0.367406
40 1 H 3.05318 12.2087 10.9073 -0.0964658 -0.410474 0.0932464
41 1 H 2.93922 4.52764 10.3184 0.3179 -0.0374841 0.726299
42 1 H 4.49541 4.95658 10.7526 -0.841001 -1.62775 -0.125054
43 1 H 11.8774 7.33923 5.19327 0.129796 -0.592838 0.137164
44 1 H 12.2899 5.79641 5.29293 0.164059 0.342146 -0.175704
45 1 H 5.79624 4.80425 7.3494 0.555859 0.191955 0.00265409
46 1 H 4.39411 4.49029 7.81605 0.502973 0.724404 -0.930578
47 1 H 6.8058 11.8734 0.939335 -0.027263 0.461223 -0.58894
48 1 H 6.11897 11.8713 -0.52709 0.318046 0.144337 0.820346
49 1 H 2.81007 9.66231 12.1997 0.739842 0.111891 0.191145
50 1 H 3.93607 9.63702 -0.115258 -0.279353 -0.0220892 -0.460795
51 1 H 6.87558 9.89352 3.72372 -0.350245 -0.0924177 -0.00625263
52 1 H 7.43845 9.47361 2.26786 -0.190974 0.0694604 1.30992
53 1 H 4.19212 7.0187 7.68661 -0.252931 0.0670826 0.257902
54 1 H 3.04753 6.81431 6.81704 -0.384095 -0.126787 -0.448969
55 1 H 1.50995 2.31583 7.51757 0.211257 -0.454273 0.145202
56 1 H 0.759188 1.04662 6.97744 0.395124 0.208432 0.262971
57 1 H 7.34 0.390728 2.41935 0.668661 0.0285273 -0.640761
58 1 H 8.55107 0.817613 1.58823 -0.0199594 0.106314 0.0434646
59 1 H 5.57882 4.22792 12.5638 0.468197 -0.401572 -0.332775
60 1 H 6.45611 3.40895 11.5726 -0.24375 0.010972 0.210549
61 1 H 10.545 0.628422 7.85765 0.287883 -0.167211 -0.147348
62 1 H 9.81329 0.311144 6.54451 0.624859 -0.495211 -1.32386
63 1 H 10.0502 6.92989 4.30688 0.162035 0.0455371 0.125257
64 1 H 9.1401 8.19908 4.05764 0.341173 -1.7015 -0.456157
65 1 H 0.65834 2.27358 1.1618 -0.168325 -0.260268 0.0832748
66 1 H 2.13133 2.12724 1.5994 -0.0958404 -0.213076 -0.0324229
67 1 H 8.78745 3.10065 7.89728 -0.0167551 0.481355 -0.381532
68 1 H 8.57191 4.42535 7.01362 -0.417997 -0.0938772 -0.118843
69 1 H 8.4427 10.6761 7.35518 0.204432 0.630087 -0.0230776
70 1 H 8.67326 12.1618 7.7396 -0.0975678 -0.549023 0.288577
71 1 H 12.8316 8.27732 2.88928 -0.309785 -0.103818 -0.26043
72 1 H 11.8755 7.24745 2.2423 0.171178 0.0393687 -0.0076939
73 1 H 2.07874 6.92148 11.8768 -0.967248 0.11055 -0.311787
74 1 H 0.765108 6.52586 12.5117 0.344709 -0.0440736 -0.523224
75 1 H 6.11709 6.25543 9.32331 1.59332 -0.871403 0.506598
76 1 H 7.09326 5.32062 10.2082 -0.465781 0.373632 -0.129105
77 1 H 7.00705 7.30646 5.27127 0.295583 0.115766 -0.108073
78 1 H 5.59044 6.88344 5.04045 0.205 0.070684 0.137422
79 1 H 10.879 5.1502 10.1089 -0.908828 0.942432 -0.408925
80 1 H 9.91281 5.85485 8.9825 0.155234 -0.525734 0.871767
81 1 H 12.7366 7.89121 11.9264 0.126053 -0.263106 -0.167606
82 1 H 12.0388 6.63197 12.48 -0.322676 0.688966 -0.565165
83 1 H 11.2086 2.03121 4.50116 -0.156069 0.22187 0.109795
84 1 H 10.7658 3.39907 5.087 -0.184779 -0.512919 -0.189378
85 1 H 10.8281 8.46069 9.16866 0.277245 0.870894 0.103618
86 1 H 11.3689 7.187 8.76527 0.457386 0.432503 -0.317757
87 1 H 7.11373 4.68245 5.04769 -0.418714 -0.391845 -0.153577
88 1 H 8.05647 3.48503 5.5352 -0.720717 -0.453253 -0.211175
89 1 H 2.25297 5.72293 1.12542 0.116528 -0.292024 -0.0621824
90 1 H 1.18983 6.78585 0.912326 0.0544354 -0.0949723 0.236569
91 1 H 7.76038 11.843 4.84755 -0.266549 -0.668796 -0.845192
92 1 H 9.35961 11.7753 4.37989 -0.625392 -0.156012 -0.622552
93 1 H 0.307512 5.88575 7.08199 0.403007 -0.202912 0.117096
94 1 H 1.61038 5.12091 7.31564 0.013296 0.0899014 0.145093
95 1 H 2.074 3.86208 5.18443 -0.309401 0.0368193 0.244512
96 1 H 2.91561 3.13395 4.14067 -0.203773 1.5921 0.490049
97 1 H 9.30838 7.88203 1.65399 0.0774081 -0.226194 -0.13126
98 1 H 9.23463 7.39948 0.144664 0.0665873 0.222213 0.180858
99 1 H 1.87608 8.02616 3.99782 -0.30611 0.421026 0.000673838
100 1 H 0.918403 8.18953 5.15489 -0.163146 0.26131 -0.276855
101 1 H 5.02618 1.93721 -0.316209 -0.0679976 0.00380592 0.277604
102 1 H 5.26521 2.17917 1.17971 0.165045 -0.40844 0.617472
103 1 H 5.86205 11.1196 7.64958 0.0973236 0.0873352 -0.234441
104 1 H 4.99469 12.1534 6.87159 0.246725 -0.30641 -0.0505671
105 1 H 4.8159 9.39382 1.92209 0.0451254 0.837201 0.0551864
106 1 H 4.15636 10.7706 2.45865 0.427301 0.682535 -0.1806
107 1 H 9.88422 11.4199 2.36888 1.00107 -0.0440702 0.613817
108 1 H 11.3287 10.9189 2.78133 -0.765759 0.231077 0.0914452
109 1 H 10.3795 4.02107 1.96483 -0.187974 0.495151 0.363978
110 1 H 10.6196 5.4297 1.18608 -0.175283 0.306167 0.777876
111 1 H 7.63831 1.23645 4.79167 0.161247 0.774217 -0.455211
112 1 H 7.96594 2.50687 3.83779 0.0639241 -0.483513 -0.0286471
113 1 H 6.81822 7.60125 11.5561 -0.9529 -0.41699 -0.177244
114 1 H 7.46363 8.94453 11.1684 0.0494553 -0.261638 0.123572
115 1 H -0.167431 3.05356 10.0425 -0.528071 0.142572 -1.11531
116 1 H 0.693534 4.17304 10.6277 -0.242838 0.555703 -0.191695
117 1 H 11.1428 4.14543 -0.450379 0.730817 -0.00674416 -0.264288
118 1 H 12.3521 3.83936 11.8833 -0.900122 0.668588 0.897655
119 1 H 1.68885 11.105 3.60112 -0.478943 -0.425439 -0.180878
120 1 H 1.60376 12.5842 3.15992 -0.704685 0.393572 -0.493446
121 1 H 6.99873 1.13083 9.6735 -0.429491 -0.29087 0.0208592
122 1 H 5.82612 0.256451 10.168 0.153702 0.211554 -0.321257
123 1 H 0.851469 9.43092 -0.461577 0.0631038 0.129524 0.3922
124 1 H 1.35257 10.0562 0.874623 0.0839892 0.00359507 -0.192436
125 1 H 3.50448 6.2359 3.06805 0.896265 1.65341 0.0408779
126 1 H 3.69842 7.85796 2.81569 -0.164353 -0.146549 -0.0626058
127 1 H 7.46201 8.27555 9.36151 0.120779 -0.00219381 -0.168598
128 1 H 7.52796 9.6453 8.58805 0.297625 0.158565 0.619649
129 2 O 5.82135 10.4193 5.18936 -1.1331 1.05545 -1.35308
130 2 O 0.74796 8.2455 7.67035 0.705335 0.397316 0.193317
131 2 O 9.75968 9.51338 10.4372 0.341482 0.230274 -0.156617
132 2 O 1.53032 12.3281 7.17656 -0.0625408 -0.217436 0.302962
133 2 O 4.78106 7.17998 11.3913 0.155154 -0.989437 -0.0516416
134 2 O 12.3957 3.5369 8.36044 -0.956711 0.00412312 0.746027
135 2 O 11.9515 12.1688 6.45559 -0.30237 0.042077 -0.434488
136 2 O 5.95385 8.86436 0.654541 0.102085 -0.305868 -0.0871849
137 2 O 5.60363 2.01777 6.40215 0.786904 -0.169184 0.413663
138 2 O 3.565 2.1085 8.29512 -0.755498 0.612815 -0.576213
139 2 O 4.16749 0.499462 3.54494 0.303839 0.731182 0.484026
140 2 O 1.21114 9.91943 10.624 -0.0148946 0.495428 0.226478
141 2 O 6.48519 11.2964 10.9872 0.560936 0.0728634 0.612009
142 2 O 8.17669 3.81562 2.19505 -0.531467 0.496807 0.35492
143 2 O 6.59481 6.1459 3.27091 -0.293018 -0.214572 -0.849608
144 2 O 9.85302 1.74616 10.8186 -0.0330605 -0.469305 -1.13034
145 2 O 2.99707 9.85754 5.93785 0.860381 0.218528 1.07438
146 2 O 9.07866 7.00737 7.20713 -0.0453474 0.666139 1.1318
147 2 O 10.3345 9.44554 5.90741 0.29116 0.571597 -1.42274
148 2 O 3.3829 -0.514638 11.4637 0.343128 0.646841 0.237926
149 2 O 3.80566 4.85088 10.0487 0.624659 0.78314 -0.668696
150 2 O 11.586 6.43947 5.44627 -0.354849 0.288807 0.0603928
151 2 O 4.88777 4.9419 7.06897 -1.02146 -0.971531 1.16365
152 2 O 6.11062 11.4825 0.378712 -0.251755 -0.126154 -0.361568
153 2 O 3.75781 9.85139 12.3741 -0.400675 -0.024271 0.0099999
154 2 O 7.65472 9.58831 3.23239 0.563378 -0.15709 -1.19728
155 2 O 3.23276 7.20868 7.6708 0.845536 0.201185 0.0906751
156 2 O 0.74565 2.01444 7.00908 -0.187155 0.0661083 -0.594589
157 2 O 7.87298 0.133161 1.62594 -0.658181 -0.168131 0.669414
158 2 O 5.94828 4.2292 11.6565 -0.058857 0.44978 0.17449
159 2 O 9.68273 0.559547 7.44137 -1.19564 0.567257 1.44044
160 2 O 9.28599 7.23166 3.799 -0.803584 1.58412 0.11355
161 2 O 1.51409 2.70247 1.136 0.391803 0.497273 -0.0604298
162 2 O 9.18791 3.92113 7.5568 1.08433 -0.658806 0.995334
163 2 O 8.4303 11.2803 8.11871 0.0961353 0.00515702 -0.580843
164 2 O 11.9093 8.14542 2.5932 0.351731 0.228075 0.359435
165 2 O 1.1052 6.96585 11.6983 1.08533 -0.168978 0.531116
166 2 O 7.03315 5.85028 9.39428 -1.17851 0.525804 -0.744111
167 2 O 6.16771 7.25043 5.73392 -0.469588 0.0356977 0.349354
168 2 O 10.1967 5.85283 9.93322 0.538635 -0.313768 -0.517311
169 2 O 11.8942 7.5876 12.2715 -0.419114 -0.636582 0.684139
170 2 O 10.4977 2.69108 4.46921 0.091622 0.336701 0.0278171
171 2 O 11.5245 8.14022 8.57147 -0.339023 -0.825551 0.237609
172 2 O 7.99941 4.4166 5.30992 0.784537 1.0047 -0.035038
173 2 O 1.33821 5.82523 0.841914 -0.28481 0.696273 0.0378476
174 2 O 8.67538 12.0406 5.01956 0.97491 0.849038 1.63479
175 2 O 0.744871 5.02849 6.89358 -0.251521 0.622729 -0.256423
176 2 O 2.73936 4.04754 4.51353 0.442292 -1.48929 -0.780788
177 2 O 8.72596 7.75534 0.888059 -0.192789 -0.0111665 -0.0194056
178 2 O 1.1076 8.57216 4.26951 0.222178 -0.761738 0.44441
179 2 O 5.16885 2.62874 0.346608 -0.191492 0.328363 -0.812471
180 2 O 5.42325 11.9725 7.71839 -0.503227 0.406361 0.630489
181 2 O 4.04725 9.83083 2.35778 -0.649376 -1.54211 0.00530325
182 2 O 10.6045 11.5259 3.04123 -0.446006 -0.288281 -0.726163
183 2 O 10.5397 4.48074 1.14294 0.640628 -0.699657 -1.27928
184 2 O 7.30308 1.85586 4.10977 -0.418061 -0.964414 0.159904
185 2 O 7.66026 8.02675 11.4145 0.716482 0.650993 0.149742
186 2 O 0.558486 3.22782 10.6358 0.787367 -0.425917 1.23102
187 2 O 11.6901 4.5036 12.2366 0.604048 -0.544764 -0.931169
188 2 O 2.13626 11.9465 3.61352 1.04413 -0.171157 0.717179
189 2 O 6.02462 1.07601 9.68084 0.441922 0.201404 0.38754
190 2 O 0.898922 9.29299 0.494019 0.0404444 -0.306474 0.258675
191 2 O 4.1294 7.02617 3.06786 -1.00453 -1.42167 0.101394
192 2 O 7.03471 8.82022 8.68355 -0.65733 -0.227504 -0.330419
ITEM: TIMESTEP
400
ITEM: NUMBER OF ATOMS
192
ITEM: BOX BOUNDS pp pp pp
-6.3284773094529712e-01 1.3058263730945281e+01
-6.3284773094529712e-01 1.3058263730945281e+01
-6.3284773094529712e-01 1.3058263730945281e+01
ITEM: ATOMS id type element x y z fx fy fz
1 1 H 5.89154 10.0593 5.5942 0.0590941 -0.753024 -0.0218142
2 1 H 4.57253 10.6065 4.99712 0.0318989 -0.106956 0.436801
3 1 H 0.61301 7.19844 6.99699 0.587275 -0.698703 0.196837
4 1 H 13.1462 8.02253 7.56278 -0.258268 0.140769 -0.36171
5 1 H 9.17988 9.04698 11.2712 -0.120639 0.0351251 -0.0298953
6 1 H 10.5938 8.72515 11.77 -0.0221767 0.227885 0.0628321
7 1 H 1.34244 12.0891 5.66928 0.345918 0.275168 -0.129559
8 1 H 2.13486 12.3486 6.97785 -0.144128 -0.18451 -0.176513
9 1 H 4.20572 6.56795 10.7626 -0.553853 0.73006 0.104896
10 1 H 3.65012 8.00312 11.2455 -0.342611 -0.548332 0.0302098
11 1 H 12.5171 2.7435 8.4992 0.506007 0.0388283 -0.183288
12 1 H 11.3553 3.64442 8.44204 0.222585 0.515771 0.109999
13 1 H 12.2824 11.5932 6.04511 0.337909 -0.894036 -0.877486
14 1 H -0.600612 12.7287 6.69444 1.15064 0.0685041 -0.0775492
15 1 H 6.99349 9.03848 0.326131 0.0288773 -0.00503769 0.0766551
16 1 H 6.10373 10.2829 0.667527 0.0970885 -0.274674 0.0483375
17 1 H 4.754 2.0801 5.94178 -0.449673 0.948966 -0.15508
18 1 H 5.24627 0.911807 6.60698 0.392417 -0.651567 0.238814
19 1 H 3.40357 0.431909 8.97944 0.36066 -0.595318 0.347662
20 1 H 3.25217 1.92099 8.85207 0.404953 0.546609 0.156311
21 1 H 5.41544 -0.338844 2.81433 0.0623332 -0.0932825 0.00185656
22 1 H 4.84215 0.903363 3.50093 0.135704 -0.560797 -0.181736
23 1 H 1.32067 9.59593 11.2162 -0.3768 -0.0354705 -0.233735
24 1 H -0.0227917 9.55212 10.4483 0.125494 -0.0159747 -0.0861095
25 1 H 5.31377 12.0757 10.2278 -0.371263 -0.214249 -0.242317
26 1 H 6.67745 11.4204 9.967 0.469867 -0.549126 -1.0512
27 1 H 9.24974 3.97683 1.66201 -0.633666 0.595459 0.250043
28 1 H 7.69824 4.5005 2.00066 1.18895 -0.386763 -0.11023
29 1 H 7.30757 6.63317 2.35168 -0.45015 0.705829 -0.227901
30 1 H 5.86674 5.94368 2.58602 -0.346844 0.726821 -0.44076
31 1 H 9.76371 1.36333 10.9326 0.372467 -0.200531 0.28797
32 1 H 11.025 2.27548 10.6813 0.098852 -0.148056 0.383803
33 1 H 3.55839 9.81419 6.85696 0.126222 -0.332482 0.362594
34 1 H 2.48844 9.75714 5.75619 0.493269 0.184612 -0.0360443
35 1 H 10.0187 6.52718 6.11151 0.30594 -0.455336 -0.0344735
36 1 H 9.43612 5.91258 7.47484 0.15031 -0.627293 -0.42234
37 1 H 11.1956 9.36485 6.35669 -0.213906 0.211758 -0.360572
38 1 H 10.5284 10.654 5.89479 -0.403019 0.0306243 0.173123
39 1 H 3.48838 11.1797 11.9442 -0.258612 -0.272683 0.417112
40 1 H 2.77064 12.3212 12.7196 0.197477 -0.283104 -0.240434
41 1 H 2.69309 3.96741 10.3004 -1.08588 -0.474701 0.942897
42 1 H 4.12133 4.44192 10.8727 -0.0211061 -0.682756 0.486069
43 1 H 12.661 7.2407 5.64235 -0.832107 -0.906812 0.0248269
44 1 H 12.4047 5.71363 5.55489 0.0367122 -0.118521 0.0262779
45 1 H 6.08885 4.21456 7.28064 -0.493092 0.0710425 -0.164338
46 1 H 5.1766 4.29921 8.46101 -0.392076 0.359077 -0.133051
47 1 H 6.51468 12.4239 0.383524 -0.968868 -0.275056 -0.106353
48 1 H 5.25255 12.1306 -0.529919 -0.21639 0.165149 -0.399265
49 1 H 2.68233 9.06819 -0.163165 -0.0699936 0.0618069 -0.203644
50 1 H 4.2157 8.80051 -0.305687 0.185235 0.00318105 0.0206925
51 1 H 7.21917 10.6151 3.50911 -0.0540431 0.0141424 0.102169
52 1 H 7.08692 9.35071 2.65771 0.825292 0.623154 0.532911
53 1 H 4.01705 7.11509 7.55097 0.581465 0.125245 0.142061
54 1 H 2.74636 6.36416 7.58357 0.208081 0.621194 -0.617843
55 1 H 1.14585 1.54877 7.87293 0.222547 -0.363788 -0.359495
56 1 H 0.663704 1.3224 6.43252 0.175838 -0.346947 -0.0473205
57 1 H 7.61055 0.661094 1.24574 0.113001 0.371772 -0.0840831
58 1 H 8.88488 -0.142153 1.59422 -0.452041 -0.0277549 -0.068625
59 1 H 5.7592 3.26468 12.3565 0.146305 -0.571225 0.0963627
60 1 H 6.54728 3.31711 10.9996 -0.216715 -0.321884 0.181701
61 1 H 10.839 13.3807 7.40036 -0.473838 -0.526852 -0.30126
62 1 H 9.63409 -0.693836 6.47276 0.325901 0.371181 -0.0729882
63 1 H 10.2905 7.99371 3.96607 -0.375037 -0.0784797 -0.148488
64 1 H 8.8611 8.52275 3.62128 -0.0258639 0.221684 0.553182
65 1 H 1.39073 2.67712 1.99273 -0.0770944 0.444682 -0.257828
66 1 H 1.47662 3.96218 1.08403 -0.123409 -0.0405279 0.0617089
67 1 H 9.21357 3.57795 8.62297 -0.443926 -0.281649 0.467258
68 1 H 8.87081 3.66113 7.08711 0.300314 0.0621413 0.437539
69 1 H 9.64444 10.7124 8.62606 -0.368302 0.244105 -0.288068
70 1 H 9.07747 11.9842 7.85715 0.484152 -0.8866 0.557334
71 1 H 12.6987 8.14855 2.11573 -0.0235315 -0.0436092 -0.0671031
72 1 H 11.7476 7.58948 1.03646 0.0851008 0.595787 -0.015963
73 1 H 0.936483 6.40331 11.0991 0.236159 0.523764 -0.0700155
74 1 H 1.74745 6.33412 12.3319 0.110652 0.518854 0.150594
75 1 H 7.02381 6.79968 8.88644 -0.297391 -0.00577893 0.809878
76 1 H 6.62673 6.10305 10.3068 0.241672 0.335722 -0.994932
77 1 H 6.43959 6.82142 5.63205 -0.539781 0.720891 0.0022223
78 1 H 4.91954 7.13505 5.6328 0.33804 0.0352034 -0.144761
79 1 H 11.0376 5.22577 10.9965 -0.578148 1.25868 -0.217794
80 1 H 10.0243 6.4345 10.5134 0.0351872 -0.529548 0.149962
81 1 H 12.6232 8.02147 12.5339 -0.244571 -0.212305 0.249617
82 1 H 11.3389 7.17847 12.4001 0.399264 -0.103065 0.163023
83 1 H 10.3654 2.20366 5.50945 0.118185 0.0201463 -0.065887
84 1 H 9.70935 3.06836 4.46791 -0.0957752 0.0619802 -0.0306085
85 1 H 11.0528 8.16797 9.19518 0.0993926 0.561646 1.07989
86 1 H 10.7464 7.59404 7.89121 0.198707 0.462267 -0.708504
87 1 H 7.08531 4.65957 5.37299 -0.0429883 0.256434 -0.301049
88 1 H 7.38855 3.15095 5.15058 0.0427791 0.556761 0.682637
89 1 H 1.14533 5.7845 1.66887 -0.106762 0.213801 0.0152213
90 1 H 0.161897 5.8423 0.528278 -0.816094 0.0495716 -0.195514
91 1 H 8.35584 11.6206 4.97934 0.732018 -0.107851 -0.445322
92 1 H 9.76651 12.1318 4.29245 -0.608845 -0.52964 -0.178846
93 1 H 0.482925 4.7168 7.60874 -0.183994 -0.253758 -0.11899
94 1 H 1.1378 3.76105 6.61825 -0.178591 0.128643 0.161404
95 1 H 1.63466 4.52063 4.41267 -0.0345819 -0.578973 0.0671977
96 1 H 2.62195 3.61169 3.72268 1.12003 -0.106336 -0.440556
97 1 H 9.14011 7.82977 1.9009 0.000485881 -0.240393 -0.133407
98 1 H 8.67325 6.73986 0.911568 0.237753 0.172214 -0.168812
99 1 H 2.19972 7.98754 4.63155 -0.146591 0.513905 0.186665
100 1 H 1.21154 8.65583 5.66009 -0.509051 -0.562725 -0.0506061
101 1 H 4.99454 1.48474 0.836961 0.0999449 -0.50025 0.333188
102 1 H 3.9992 2.41199 0.227116 -0.0582297 0.125031 0.00249377
103 1 H 6.45822 12.756 7.43349 -0.087925 -0.0957228 -0.111563
104 1 H 5.27177 12.1466 6.66034 0.242295 0.0660807 0.164958
105 1 H 3.67199 10.825 1.46308 0.20607 0.210367 -0.495366