LMPS By AtomBrew

192 atoms
2 atom types

0 12.425416        xlo xhi
0 12.425416        ylo yhi
0 12.425416        zlo zhi


Atoms

1 1 5.67314 9.52894 6.24718
2 1 5.82364 8.73234 4.88635
3 1 2.01779 8.39991 7.96768
4 1 1.19966 9.03636 6.76991
5 1 9.24191 8.77688 9.83854
6 1 10.1086 10.0886 10.0313
7 1 1.45494 11.2012 7.06703
8 1 3.03061 11.2241 6.90641
9 1 5.64442 6.39437 10.6837
10 1 4.99759 7.83802 10.7646
11 1 11.2251 3.32148 7.50872
12 1 10.5442 4.63348 8.07807
13 1 10.5685 10.9903 5.45056
14 1 11.2361 10.6077 6.83512
15 1 5.1085 7.33853 1.20141
16 1 5.71246 8.8028 1.18733
17 1 6.05459 3.20439 6.11618
18 1 6.56618 3.09436 7.61125
19 1 4.51587 3.15091 9.51679
20 1 3.4249 2.46619 8.59484
21 1 4.23576 1.19982 4.69359
22 1 4.97249 2.54672 4.30354
23 1 1.29648 8.71528 10.1775
24 1 1.19963 10.1823 9.58808
25 1 7.05871 10.6456 11.2262
26 1 7.19763 9.18735 10.6235
27 1 7.99262 3.67761 1.61765
28 1 7.06461 3.83315 2.89187
29 1 6.32661 6.22461 3.67427
30 1 7.23727 5.96798 2.40388
31 1 8.85949 2.60677 11.1124
32 1 10.0629 2.31382 10.125
33 1 3.60945 8.47419 5.59158
34 1 2.77538 9.78196 5.27043
35 1 9.06519 6.57244 6.91538
36 1 8.55252 7.78344 7.79838
37 1 9.79627 9.07718 6.20723
38 1 8.69455 9.12111 5.06998
39 1 4.62128 1.20981 10.5424
40 1 3.24523 1.7854 11.0756
41 1 3.02049 5.4854 9.04481
42 1 3.55104 4.98189 10.4498
43 1 11.2428 7.46998 5.80392
44 1 11.253 6.38169 6.95483
45 1 4.64985 5.76937 6.90702
46 1 4.44726 4.43763 7.74038
47 1 6.03786 11.0625 1.82769
48 1 7.61273 11.2257 1.8748
49 1 3.84123 9.60889 9.6956
50 1 3.97834 9.94863 11.2366
51 1 8.27944 8.86244 2.92647
52 1 6.78543 9.38082 3.01752
53 1 4.20137 8.44633 7.70852
54 1 3.78748 7.54343 8.94243
55 1 3.17823 1.92208 6.48145
56 1 1.8041 2.01803 5.6994
57 1 8.06666 1.20185 2.74299
58 1 7.55815 1.54924 1.2836
59 1 5.43219 4.16231 11.2384
60 1 6.79508 3.35518 11.2267
61 1 8.06113 1.36868 7.66977
62 1 9.60902 1.5466 7.3844
63 1 9.51223 7.17885 4.48329
64 1 9.2352 6.54092 3.06014
65 1 2.04782 1.67759 1.20276
66 1 1.9461 2.69279 2.41441
67 1 9.27627 3.53049 6.52175
68 1 8.70298 3.44587 7.99594
69 1 7.72329 10.9836 7.97956
70 1 9.23743 11.1506 7.54536
71 1 11.2447 8.28722 3.7783
72 1 11.2293 7.33296 2.51409
73 1 2.69991 6.97099 10.7575
74 1 1.19706 6.80342 11.2291
75 1 6.75529 4.76053 9.0351
76 1 7.02312 5.3323 7.58238
77 1 6.05652 7.44468 6.81302
78 1 7.3823 7.61989 5.9641
79 1 8.79104 4.61887 9.85168
80 1 8.62124 5.9232 8.9691
81 1 11.1581 8.5711 11.2262
82 1 11.2196 7.00335 11.0084
83 1 9.12631 3.22052 4.35095
84 1 10.1329 4.2508 3.69187
85 1 10.9252 7.59042 8.9185
86 1 10.7 8.98803 8.20786
87 1 8.80926 5.22395 5.20023
88 1 7.35522 4.61538 5.04376
89 1 1.19761 6.16221 1.67577
90 1 2.67469 6.46926 1.19306
91 1 7.1111 11.2273 4.34182
92 1 7.00902 11.2469 5.92241
93 1 2.18999 6.69303 6.58949
94 1 1.19416 5.54941 6.13176
95 1 4.49344 4.60386 4.91282
96 1 3.16057 4.63564 5.76811
97 1 8.60144 7.5359 1.20379
98 1 9.6315 8.73922 1.19602
99 1 1.5678 7.91783 3.41413
100 1 1.18881 7.75483 4.94346
101 1 4.6481 2.73664 2.13716
102 1 5.90827 3.00947 1.21705
103 1 5.81664 11.2233 9.04942
104 1 4.84671 10.5896 7.96924
105 1 4.64618 8.39597 3.06569
106 1 3.30787 9.23037 3.21318
107 1 9.72252 11.2372 2.47497
108 1 10.0068 10.0864 3.52569
109 1 9.2578 5.42498 1.19864
110 1 10.7069 5.1492 1.77572
111 1 7.14767 2.27041 4.43001
112 1 6.37143 1.18459 5.28294
113 1 7.73268 5.97447 11.2182
114 1 8.33002 7.43811 11.3183
115 1 1.44805 2.89726 9.86366
116 1 1.19795 4.26752 9.10942
117 1 11.2233 3.81774 11.2328
118 1 11.2646 4.979 10.1564
119 1 1.18374 10.9216 3.22109
120 1 2.65415 11.2716 3.69488
121 1 6.40562 2.03257 9.52998
122 1 5.42664 1.41043 8.45129
123 1 2.73064 8.66741 1.16809
124 1 1.19083 8.31757 1.29327
125 1 2.93802 5.79119 3.9138
126 1 4.1485 6.70522 4.37024
127 1 6.29885 7.65702 9.00592
128 1 6.87426 9.02762 8.45871
129 2 5.77323 9.61467 5.28617
130 2 1.28596 8.99254 7.73507
131 2 9.25442 9.7408 9.73084
132 2 2.29747 10.9702 7.48856
133 2 5.08883 6.98458 11.2165
134 2 10.9442 3.78208 8.31485
135 2 11.2261 11.255 6.11276
136 2 5.92815 7.85724 1.20474
137 2 6.73761 2.82953 6.69398
138 2 3.56818 3.09793 9.31683
139 2 4.16929 2.01789 4.17664
140 2 1.69726 9.5986 10.1818
141 2 7.14739 10.1318 10.4082
142 2 7.83639 3.37378 2.52549
143 2 6.39159 6.32951 2.71215
144 2 9.37463 1.91002 10.6765
145 2 3.53084 9.42558 5.76357
146 2 9.33819 7.3393 7.44291
147 2 8.95349 9.47338 5.93586
148 2 3.65886 1.20025 10.4218
149 2 3.79509 5.43258 9.62628
150 2 11.0679 6.53971 6.01586
151 2 4.95234 4.85537 7.02533
152 2 6.83751 11.1873 1.29302
153 2 4.44372 9.92746 10.3858
154 2 7.49313 9.10645 2.41355
155 2 4.28009 7.56552 8.10711
156 2 2.52656 2.52893 6.09679
157 2 7.28528 1.27376 2.17273
158 2 6.39336 4.23257 11.1283
159 2 8.95395 1.17938 7.99833
160 2 8.82507 6.9508 3.83777
161 2 2.53217 2.33091 1.73142
162 2 8.6154 3.88635 7.13617
163 2 8.60682 11.2536 8.27518
164 2 10.7938 8.08595 2.94334
165 2 1.91193 6.40763 10.7065
166 2 6.54236 5.47359 8.41292
167 2 6.67814 7.00157 6.21457
168 2 9.1956 5.46436 9.60192
169 2 10.6358 7.75415 11.1992
170 2 10.0587 3.40105 4.15374
171 2 11.2645 8.49407 8.8228
172 2 7.89976 5.24908 5.53651
173 2 2.10347 6.34938 1.96781
174 2 7.56936 11.007 5.16787
175 2 1.30041 6.32417 6.70565
176 2 3.68113 4.12098 5.13168
177 2 9.54102 7.77393 1.16587
178 2 1.89217 8.00502 4.32412
179 2 4.98626 2.70835 1.22845
180 2 4.91716 11.2387 8.68666
181 2 4.25401 9.20684 3.42568
182 2 10.1469 10.3755 2.61045
183 2 9.95413 4.75817 1.30531
184 2 7.15623 1.35049 4.73753
185 2 7.78992 6.83816 10.7804
186 2 1.58764 3.85659 9.89692
187 2 10.7542 4.59216 10.8849
188 2 1.72612 11.2125 3.97084
189 2 6.25314 1.27696 8.94117
190 2 1.87461 8.971 1.50862
191 2 3.45076 6.58812 3.70667
192 2 6.09112 8.58687 8.82387
